 Q-Chem 5.0, Q-Chem, Inc., Pleasanton, CA (2017)
 Q-Chem 5.0.1 for Intel X86 EM64T Linux

User input:
--------------------------------------------------------------
$molecule
0 1
N
O  1 1.221486
O  1 1.221819 2 123.295845
C  1 1.446731 2 118.409833 3 179.999063 0
C  4 1.389335 1 119.343722 2 -0.000000 0
H  5 1.082394 4 120.405689 1 -0.000000 0
C  5 1.385120 4 118.786646 1 180.000000 0
H  7 1.084624 5 120.801696 4 180.000000 0
C  7 1.390215 5 120.270189 4 -0.000000 0
O  9 1.340852 7 119.748609 5 -180.000000 0
H  10 0.967435 9 109.890860 7 180.000000 0
C  4 1.395322 1 118.547642 2 180.000000 0
H  12 1.084248 4 120.722639 1 0.000000 0
C  12 1.378977 4 118.590364 1 -180.000000 0
O  14 1.353702 12 125.083403 4 180.000000 0
H  15 0.963821 14 112.022432 12 -0.000000 0
$end

$rem
EXCHANGE            PBE0
CIS_N_ROOTS         35
CISTR_PRINT         true
cis_singlets        true
cis_triplets        false
BASIS          	    6-311+G*
RPA                 TRUE
GUI 		            2
MAX_SCF_CYCLES	    250
SOLVENT_METHOD      PCM
$end

$pcm
THEORY		    CPCM
$end

$solvent
DIELECTRIC          18.23
OPTICALDIELECTRIC   1.8977
$end

--------------------------------------------------------------

             Standard Nuclear Orientation (Angstroms)
    I     Atom           X                Y                Z
 ----------------------------------------------------------------
    1      N       0.0000000000     0.0000000000     0.0000000000
    2      O       0.0000000000     0.0000000000     1.2214860000
    3      O       1.0212539576     0.0000000000    -0.6707324525
    4      C      -1.2724967500    -0.0000208101    -0.6883186814
    5      C      -2.4475420101    -0.0000400265     0.0529777361
    6      H      -2.4127736461    -0.0000394579     1.1348131821
    7      C      -3.6593828906    -0.0000598446    -0.6178419820
    8      H      -4.5964969900    -0.0000751699    -0.0717409055
    9      C      -3.6910027269    -0.0000603617    -2.0076973458
   10      O      -4.8699763628    -0.0000796423    -2.6463719511
   11      H      -4.7260708270    -0.0000772889    -3.6030441395
   12      C      -1.2758528043    -0.0000208650    -2.0836366454
   13      H      -0.3451134979    -0.0000056439    -2.6398003523
   14      C      -2.4882658376    -0.0000406924    -2.7406238618
   15      O      -2.6445804674    -0.0000432488    -4.0852705966
   16      H      -1.7987914403    -0.0000294170    -4.5474305704
 ----------------------------------------------------------------

   15    -586.7297225199      2.83E-09 Convergence criterion met
 Total energy in the final basis set = -586.72972252

             TDDFT Excitation Energies
 ---------------------------------------------------

 Excited state   1: excitation energy (eV) =    3.5706
 Total energy for state  1:                  -586.59850571 au
    Multiplicity: Singlet
    Trans. Mom.: -1.4447 X   0.0000 Y  -0.4673 Z
    Strength   :     0.2016803416
    X: D( 39) --> V(  1) amplitude = -0.2237
    X: D( 40) --> V(  1) amplitude =  0.9693

 Excited state   2: excitation energy (eV) =    3.9866
 Total energy for state  2:                  -586.58321871 au
    Multiplicity: Singlet
    Trans. Mom.: -0.0000 X   0.0013 Y   0.0000 Z
    Strength   :     0.0000001733
    X: D( 38) --> V(  1) amplitude =  0.9865

 Excited state   3: excitation energy (eV) =    4.1534
 Total energy for state  3:                  -586.57708920 au
    Multiplicity: Singlet
    Trans. Mom.: -0.9959 X   0.0000 Y  -0.8613 Z
    Strength   :     0.1764112466
    X: D( 39) --> V(  1) amplitude =  0.9567
    X: D( 40) --> V(  1) amplitude =  0.2230

 Excited state   4: excitation energy (eV) =    4.6473
 Total energy for state  4:                  -586.55893822 au
    Multiplicity: Singlet
    Trans. Mom.: -0.0000 X  -0.0596 Y   0.0000 Z
    Strength   :     0.0004038592
    X: D( 36) --> V(  1) amplitude =  0.9854

 Excited state   5: excitation energy (eV) =    5.3906
 Total energy for state  5:                  -586.53162185 au
    Multiplicity: Singlet
    Trans. Mom.:  0.3162 X   0.0000 Y   0.9388 Z
    Strength   :     0.1296068311
    X: D( 39) --> V(  4) amplitude =  0.2810
    X: D( 40) --> V(  2) amplitude =  0.9260

 Excited state   6: excitation energy (eV) =    5.8846
 Total energy for state  6:                  -586.51346610 au
    Multiplicity: Singlet
    Trans. Mom.:  0.0000 X  -0.0247 Y  -0.0000 Z
    Strength   :     0.0000882777
    X: D( 40) --> V(  3) amplitude =  0.9880

 Excited state   7: excitation energy (eV) =    6.2242
 Total energy for state  7:                  -586.50098606 au
    Multiplicity: Singlet
    Trans. Mom.: -0.0824 X  -0.0000 Y  -0.9601 Z
    Strength   :     0.1416050171
    X: D( 37) --> V(  1) amplitude =  0.8980
    X: D( 39) --> V(  2) amplitude =  0.3467

 Excited state   8: excitation energy (eV) =    6.2376
 Total energy for state  8:                  -586.50049529 au
    Multiplicity: Singlet
    Trans. Mom.:  0.6901 X  -0.0000 Y   0.2659 Z
    Strength   :     0.0835964508
    X: D( 37) --> V(  1) amplitude =  0.3482
    X: D( 39) --> V(  2) amplitude = -0.6081
    X: D( 40) --> V(  4) amplitude =  0.6679

 Excited state   9: excitation energy (eV) =    6.5694
 Total energy for state  9:                  -586.48830264 au
    Multiplicity: Singlet
    Trans. Mom.:  0.3635 X   0.0000 Y  -0.1121 Z
    Strength   :     0.0232909753
    X: D( 35) --> V(  1) amplitude =  0.9598

 Excited state  10: excitation energy (eV) =    6.5809
 Total energy for state 10:                  -586.48787810 au
    Multiplicity: Singlet
    Trans. Mom.:  0.0000 X   0.0274 Y   0.0000 Z
    Strength   :     0.0001212081
    X: D( 40) --> V(  5) amplitude =  0.9850

 Excited state  11: excitation energy (eV) =    6.6608
 Total energy for state 11:                  -586.48494358 au
    Multiplicity: Singlet
    Trans. Mom.: -0.0002 X   0.0259 Y   0.0001 Z
    Strength   :     0.0001094845
    X: D( 34) --> V(  1) amplitude =  0.9674

 Excited state  12: excitation energy (eV) =    6.7144
 Total energy for state 12:                  -586.48297118 au
    Multiplicity: Singlet
    Trans. Mom.:  0.0018 X  -0.0008 Y  -0.0006 Z
    Strength   :     0.0000007108
    X: D( 39) --> V(  3) amplitude =  0.7186
    X: D( 40) --> V(  6) amplitude = -0.6493

 Excited state  13: excitation energy (eV) =    6.7194
 Total energy for state 13:                  -586.48278928 au
    Multiplicity: Singlet
    Trans. Mom.: -1.5540 X  -0.0001 Y   0.5992 Z
    Strength   :     0.4566726467
    X: D( 39) --> V(  2) amplitude =  0.6707
    X: D( 40) --> V(  4) amplitude =  0.6849

 Excited state  14: excitation energy (eV) =    6.8801
 Total energy for state 14:                  -586.47688354 au
    Multiplicity: Singlet
    Trans. Mom.:  0.0000 X   0.0400 Y  -0.0000 Z
    Strength   :     0.0002699997
    X: D( 39) --> V(  3) amplitude =  0.6663
    X: D( 40) --> V(  6) amplitude =  0.7226

 Excited state  15: excitation energy (eV) =    7.1606
 Total energy for state 15:                  -586.46657531 au
    Multiplicity: Singlet
    Trans. Mom.: -0.3475 X  -0.0001 Y  -1.5883 Z
    Strength   :     0.4637169470
    X: D( 39) --> V(  4) amplitude =  0.9293
    X: D( 40) --> V(  2) amplitude = -0.2698

 Excited state  16: excitation energy (eV) =    7.1862
 Total energy for state 16:                  -586.46563498 au
    Multiplicity: Singlet
    Trans. Mom.: -0.0000 X  -0.0135 Y  -0.0000 Z
    Strength   :     0.0000320724
    X: D( 38) --> V(  2) amplitude =  0.9126
    X: D( 40) --> V(  7) amplitude = -0.3521

 Excited state  17: excitation energy (eV) =    7.1980
 Total energy for state 17:                  -586.46520026 au
    Multiplicity: Singlet
    Trans. Mom.:  0.0000 X   0.0380 Y   0.0003 Z
    Strength   :     0.0002543683
    X: D( 38) --> V(  2) amplitude =  0.3752
    X: D( 40) --> V(  7) amplitude =  0.8625

 Excited state  18: excitation energy (eV) =    7.3157
 Total energy for state 18:                  -586.46087706 au
    Multiplicity: Singlet
    Trans. Mom.:  0.0001 X   0.1959 Y  -0.0001 Z
    Strength   :     0.0068799987
    X: D( 39) --> V(  5) amplitude =  0.9712

 Excited state  19: excitation energy (eV) =    7.5258
 Total energy for state 19:                  -586.45315612 au
    Multiplicity: Singlet
    Trans. Mom.: -0.0670 X   0.0001 Y  -0.0682 Z
    Strength   :     0.0016848409
    X: D( 40) --> V(  9) amplitude =  0.9829

 Excited state  20: excitation energy (eV) =    7.5311
 Total energy for state 20:                  -586.45296024 au
    Multiplicity: Singlet
    Trans. Mom.: -0.0001 X  -0.0429 Y   0.0000 Z
    Strength   :     0.0003401996
    X: D( 32) --> V(  1) amplitude =  0.9261
    X: D( 36) --> V(  2) amplitude =  0.2426

 Excited state  21: excitation energy (eV) =    7.5900
 Total energy for state 21:                  -586.45079621 au
    Multiplicity: Singlet
    Trans. Mom.: -0.0000 X  -0.2761 Y  -0.0000 Z
    Strength   :     0.0141737409
    X: D( 39) --> V(  6) amplitude =  0.8424
    X: D( 40) --> V(  8) amplitude =  0.4946

 Excited state  22: excitation energy (eV) =    7.6768
 Total energy for state 22:                  -586.44760456 au
    Multiplicity: Singlet
    Trans. Mom.:  0.0000 X   0.0467 Y  -0.0001 Z
    Strength   :     0.0004095462
    X: D( 39) --> V(  6) amplitude = -0.4892
    X: D( 40) --> V(  8) amplitude =  0.8192
    X: D( 40) --> V( 10) amplitude = -0.2301

 Excited state  23: excitation energy (eV) =    7.7037
 Total energy for state 23:                  -586.44661667 au
    Multiplicity: Singlet
    Trans. Mom.:  0.0000 X  -0.0117 Y  -0.0000 Z
    Strength   :     0.0000260321
    X: D( 32) --> V(  1) amplitude = -0.2192
    X: D( 36) --> V(  2) amplitude =  0.9354
    X: D( 38) --> V(  4) amplitude =  0.2136

 Excited state  24: excitation energy (eV) =    7.7821
 Total energy for state 24:                  -586.44373522 au
    Multiplicity: Singlet
    Trans. Mom.:  0.0004 X  -0.1656 Y  -0.0001 Z
    Strength   :     0.0052268324
    X: D( 40) --> V(  8) amplitude =  0.2332
    X: D( 40) --> V( 10) amplitude =  0.9240

 Excited state  25: excitation energy (eV) =    7.7871
 Total energy for state 25:                  -586.44355231 au
    Multiplicity: Singlet
    Trans. Mom.:  0.5237 X   0.0001 Y  -0.0644 Z
    Strength   :     0.0531252087
    X: D( 33) --> V(  1) amplitude =  0.9017
    X: D( 37) --> V(  2) amplitude =  0.3844

 Excited state  26: excitation energy (eV) =    7.8110
 Total energy for state 26:                  -586.44267205 au
    Multiplicity: Singlet
    Trans. Mom.: -0.0001 X   0.0288 Y   0.0000 Z
    Strength   :     0.0001588379
    X: D( 38) --> V(  4) amplitude =  0.9423

 Excited state  27: excitation energy (eV) =    7.8239
 Total energy for state 27:                  -586.44219858 au
    Multiplicity: Singlet
    Trans. Mom.: -0.0397 X  -0.0000 Y  -0.0511 Z
    Strength   :     0.0008026181
    X: D( 33) --> V(  1) amplitude = -0.3785
    X: D( 37) --> V(  2) amplitude =  0.9181

 Excited state  28: excitation energy (eV) =    7.9406
 Total energy for state 28:                  -586.43791090 au
    Multiplicity: Singlet
    Trans. Mom.:  0.0000 X  -0.0986 Y  -0.0001 Z
    Strength   :     0.0018927989
    X: D( 39) --> V(  7) amplitude =  0.9558

 Excited state  29: excitation energy (eV) =    8.1584
 Total energy for state 29:                  -586.42990678 au
    Multiplicity: Singlet
    Trans. Mom.:  0.1144 X  -0.0001 Y  -0.2368 Z
    Strength   :     0.0138263728
    X: D( 38) --> V(  3) amplitude =  0.8152
    X: D( 38) --> V(  5) amplitude =  0.4980

 Excited state  30: excitation energy (eV) =    8.1883
 Total energy for state 30:                  -586.42880980 au
    Multiplicity: Singlet
    Trans. Mom.: -0.0001 X   0.0532 Y  -0.0001 Z
    Strength   :     0.0005686733
    X: D( 31) --> V(  1) amplitude =  0.7832
    X: D( 34) --> V(  2) amplitude = -0.2329
    X: D( 36) --> V(  4) amplitude = -0.4941

 Excited state  31: excitation energy (eV) =    8.3415
 Total energy for state 31:                  -586.42317930 au
    Multiplicity: Singlet
    Trans. Mom.:  0.0566 X  -0.0000 Y  -0.0523 Z
    Strength   :     0.0012156293
    X: D( 39) --> V(  9) amplitude =  0.8101
    X: D( 40) --> V( 12) amplitude =  0.5452

 Excited state  32: excitation energy (eV) =    8.3539
 Total energy for state 32:                  -586.42272264 au
    Multiplicity: Singlet
    Trans. Mom.:  0.0001 X  -0.0983 Y   0.0000 Z
    Strength   :     0.0019796789
    X: D( 31) --> V(  1) amplitude = -0.4496
    X: D( 34) --> V(  2) amplitude =  0.2280
    X: D( 36) --> V(  4) amplitude = -0.8253

 Excited state  33: excitation energy (eV) =    8.4077
 Total energy for state 33:                  -586.42074414 au
    Multiplicity: Singlet
    Trans. Mom.: -0.0000 X   0.1898 Y  -0.0001 Z
    Strength   :     0.0074199199
    X: D( 34) --> V(  2) amplitude = -0.3513
    X: D( 39) --> V(  8) amplitude =  0.7974
    X: D( 40) --> V( 11) amplitude =  0.3495

 Excited state  34: excitation energy (eV) =    8.4272
 Total energy for state 34:                  -586.42002822 au
    Multiplicity: Singlet
    Trans. Mom.:  0.0000 X  -0.0359 Y   0.0001 Z
    Strength   :     0.0002662312
    X: D( 31) --> V(  1) amplitude =  0.2404
    X: D( 34) --> V(  2) amplitude =  0.8429
    X: D( 39) --> V(  8) amplitude =  0.3769

 Excited state  35: excitation energy (eV) =    8.4431
 Total energy for state 35:                  -586.41944609 au
    Multiplicity: Singlet
    Trans. Mom.: -0.0087 X  -0.0001 Y  -0.0221 Z
    Strength   :     0.0001164254
    X: D( 35) --> V(  2) amplitude =  0.2693
    X: D( 39) --> V(  9) amplitude = -0.4935
    X: D( 40) --> V( 12) amplitude =  0.8024

 ---------------------------------------------------

                    Orbital Energies (a.u.)
 --------------------------------------------------------------

 Alpha MOs
 -- Occupied --
-19.258 -19.257 -19.246 -19.246 -14.632 -10.315 -10.312 -10.291
-10.257 -10.254 -10.246  -1.283  -1.138  -1.109  -1.102  -0.923
 -0.839  -0.800  -0.735  -0.690  -0.632  -0.604  -0.593  -0.570
 -0.568  -0.544  -0.524  -0.476  -0.474  -0.458  -0.440  -0.417
 -0.413  -0.387  -0.376  -0.345  -0.342  -0.323  -0.282  -0.253

          Ground-State Mulliken Net Atomic Charges

     Atom                 Charge (a.u.)
  ----------------------------------------
      1 N                    -0.131010
      2 O                    -0.080501
      3 O                    -0.083135
      4 C                    -0.408103
      5 C                    -0.027943
      6 H                     0.295531
      7 C                    -0.035480
      8 H                     0.293273
      9 C                    -0.145698
     10 O                    -0.450957
     11 H                     0.425798
     12 C                     0.384587
     13 H                     0.304422
     14 C                    -0.271384
     15 O                    -0.507805
     16 H                     0.438405
  ----------------------------------------
  Sum of atomic charges =     0.000000

                    Cartesian Multipole Moments
 -----------------------------------------------------------------
    Charge (ESU x 10^10)
                 0.0000
    Dipole Moment (Debye)
         X      -3.3864      Y      -0.0000      Z      -5.5329
       Tot       6.4869
    Quadrupole Moments (Debye-Ang)
        XX     -63.5597     XY       0.0001     YY     -64.0832
        XZ       3.7679     YZ       0.0000     ZZ     -39.6947

 Total job time:  1954.47s(wall), 1952.59s(cpu)
        *  Thank you very much for using Q-Chem.  Have a nice day.  *
